40
Lattice="7.883355140686035 0.0 0.0 -0.03369726985692978 7.8832831382751465 0.0 -0.03369726985692978 -0.03384161740541458 7.8832106590271" Properties=species:S:1:pos:R:3:forces:R:3 energy=-317.8925476074219 stress="-0.010739789589459502 -0.0023789886335382755 -0.006108589616527073 -0.0023789886335382755 0.0015301558884159923 -0.003005024429966892 -0.006108589616527073 -0.003005024429966892 -0.007924051233418938" pbc="T T T"
Pb       7.85350990       0.00461000       0.07979000       0.19656999       0.21834300      -0.46045199
Pb       3.96046996       7.85571003       0.06618000      -0.21855600       0.19671600      -0.35305300
Pb       3.98476005       3.93684006       0.06961000      -0.28547701       0.20383300      -0.21179000
Pb       0.08626000       3.89063001       0.06873000      -0.06866900       0.26540101      -0.35929900
Pb       0.06197000       0.03418000       3.91839004      -0.34167901       0.15666600       0.53159600
Pb       3.99629998       7.80045986       3.86655998      -0.30634800       0.66985297       0.44261900
Pb       3.90249991       3.91225004       3.95877004       0.10916500       0.09527300       0.17047900
Pb       0.04266000       4.03416014       4.04033995      -0.41171399      -0.20794600      -0.04702400
Ti       1.93458998       1.98149002       1.97927999      -0.13913199      -0.10708000      -0.66296798
Ti       5.88228989       2.00581002       1.94809997      -0.59121102      -0.17918000       0.43723401
Ti       5.82236004       5.90793991       1.99384999       0.27134001      -0.23120400      -0.47056001
Ti       1.88164997       5.93114996       1.95598996       0.10521800      -0.18108299      -0.22357500
Ti       1.90232003       1.99678004       5.87549019      -0.41531000      -0.42700899       0.43300200
Ti       5.80881977       2.02167010       5.88136005       0.73322803      -0.54613298      -0.38209599
Ti       5.82462978       5.95417976       5.93758011       0.12693900      -0.06125800      -0.19249301
Ti       1.90593004       5.98635006       5.90075016      -0.41705400      -0.28108701       0.04939700
O        7.67924023       2.04754996       1.71263003       0.34135500      -0.08653300       0.28677300
O        3.74103999       1.74391997       1.87498999       0.14927000       0.22540601      -0.05320900
O        3.74697995       5.94635010       1.68715000      -0.45099100       0.18051200       0.18400900
O        7.66347980       5.68494987       1.95497000       0.23044699       0.17520000      -0.04413900
O        7.67900991       1.72312999       5.78645992      -0.51153898       0.38001099       0.05568100
O        3.72346997       2.00763988       5.67149019       0.27184299       0.10960500       0.18045700
O        3.70345998       5.72825003       5.94981003       0.69604200      -0.00790700      -0.27818999
O        7.67763996       5.97670984       5.56486988      -0.59582698      -0.08704600       0.42412901
O        1.56575000       7.84334993       1.92929995       0.31113699      -0.41796699       0.06198900
O        5.76707983       7.81266022       1.72850001       0.08079100       0.20967500       0.01764100
O        5.51205015       3.88205004       1.98907995       0.21175399       0.01185200      -0.18494999
O        1.92479002       3.88998008       1.68966997      -0.20587499      -0.03393500      -0.04119900
O        1.84117997       7.82508993       5.59295988       0.04935600       0.05435500      -0.01869900
O        5.51949978       7.81434011       5.89811993       0.08471400      -0.23183100      -0.06369500
O        5.79004002       3.87746000       5.55769014      -0.05506700       0.25712001       0.41268301
O        1.62372005       3.89232993       5.85909986       0.06226600      -0.31485301       0.10396000
O        1.74896002       1.71318996       7.73472977       0.15013701       0.42689499      -0.07842100
O        5.66257000       2.06889009       7.73927021      -0.20383200      -0.19159700       0.21341500
O        5.76775980       5.74934006       7.78919983       0.09827900      -0.20520100      -0.45681301
O        1.58942997       5.96635008       7.73409986      -0.02656400       0.01039500       0.47366601
O        1.62704003       2.04224992       3.78607988       0.34945899      -0.10478800       0.20616800
O        5.70039988       1.76615000       3.79743004       0.20287600       0.04277000      -0.21026000
O        5.50362015       5.99223995       3.80566001       0.26313600      -0.30471301       0.40837401
O        1.86056995       5.69373989       3.80170989       0.14952300       0.31846699      -0.30038801
40
Lattice="7.876465797424316 0.0 0.0 0.0 7.876465797424316 0.0 0.0 0.0 7.950218200683594" Properties=species:S:1:pos:R:3:forces:R:3 energy=-317.1283874511719 stress="-0.002853823953807937 0.003870702936677104 0.0042942706277847124 0.003870702936677104 -0.0015739775459565613 3.2299809598806774e-05 0.0042942706277847124 3.2299809598806774e-05 0.0012893521645349765" pbc="T T T"
Pb       0.11578000       0.01652000       7.90291977      -0.50620502      -0.15176700       0.41728601
Pb       3.99149990       7.77006006       7.85455990      -0.00217500       0.50560701       0.04250200
Pb       4.02136993       3.75756001       0.09561000      -0.11466500       0.44807699      -0.47876301
Pb       7.79435015       3.94516993       0.07342000       0.17977700      -0.00698900      -0.19821700
Pb       7.82726002       7.80783987       3.89239001       0.37775600      -0.11775900      -0.25315100
Pb       3.98122001       0.01297000       3.98609996      -0.26603201      -0.11424500      -0.28331801
Pb       3.89910007       3.91924000       3.94514990       0.17798200       0.05734500       0.02626900
Pb       0.06796000       3.82436991       4.02334976       0.08525000       0.49364400      -0.41850299
Ti       1.97298002       1.96982002       1.93066001       0.05418000      -0.60489899       0.82866001
Ti       5.93456984       2.00479007       2.01958990      -0.23195100       0.09522900      -0.02213700
Ti       5.88305998       5.99892998       1.90441000       0.04386000      -0.75184798       0.47929800
Ti       2.00851011       5.84977007       1.84347999      -0.35084099       0.58951098       1.58606899
Ti       1.94535995       1.99246001       6.00214005       0.52355099       0.93136001      -0.54596800
Ti       5.91379976       2.11306000       5.90340996      -0.34850299      -0.37429601       0.26883301
Ti       5.94447994       5.98416996       5.91102982      -0.46965200      -0.39897400      -0.08388700
Ti       1.98886001       5.98189020       5.87948990      -0.31566900      -0.29932001      -0.41532001
O        7.75997019       1.90619004       2.08744001       0.30067700       0.17395000      -0.20641901
O        3.81721997       2.30604005       2.00843000       0.72771198      -0.13481900       0.46463600
O        3.84899998       5.95099020       2.15081000      -0.65490001      -0.33034500      -0.46110100
O        7.70520020       6.22743988       1.97983003       0.98551798       0.05025300       0.00223100
O        7.80079985       2.34358001       6.02466011       0.03532600      -0.49801800       0.28297499
O        3.84886003       2.12387991       5.99910021      -0.47281799      -0.02801000       0.10300400
O        3.85240006       6.34551001       5.85363007      -0.58099598      -0.56423199       0.70334899
O        7.79093981       6.11944008       6.10397005      -0.12360400      -0.03708900      -0.18535399
O        2.04031992       0.11445000       1.91038001      -0.33792001      -0.23040199       0.04626500
O        5.65410995       0.14102000       2.12862992      -0.01694700       0.07033000       0.12473900
O        5.98624992       4.11728001       2.06586003      -0.28106201      -0.08685100      -0.37994900
O        1.66933000       3.95942998       2.12098002       0.19550200       1.92523897      -0.57911098
O        1.77072001       0.21110000       6.26855993       0.27146199      -0.25289801      -0.91933399
O        5.79558992       0.23988999       5.90735006       0.48445299       0.01734600       0.33007500
O        5.64453983       4.12185001       6.11956978       0.42447901       0.05352500      -0.05818500
O        1.88654995       4.17905998       5.97876978       0.36420399      -0.30562299      -0.11324800
O        1.93030000       2.19624996       0.06690000      -0.50966901       0.25813499      -0.94944900
O        5.81727982       2.19658995       0.16324000       0.09252100      -0.24962100      -0.90870303
O        5.72618008       6.09126997       0.01986000      -0.06772900       0.18508799       0.31234699
O        1.84465003       6.06789017       0.04943000       0.37707499      -0.39609200      -0.16379400
O        1.87368000       2.08887005       3.93701005      -0.09032500      -0.27423900       1.72027695
O        5.88706017       2.28693008       4.05215979      -0.40186301      -0.21969099      -0.09271900
O        5.78397989       5.93792009       4.07501984       0.39886701       0.63402301      -0.33105600
O        1.78337002       6.18281984       4.00122023       0.04337200      -0.06063200       0.30887300
40
Lattice="7.880148410797119 0.0 0.0 0.0 7.880148410797119 0.0 0.0 0.0 7.953935623168945" Properties=species:S:1:pos:R:3:forces:R:3 energy=-317.82000732421875 stress="-0.009916895994893631 -0.006650776973310304 0.0038796345433999356 -0.006650776973310304 -0.002023465928675621 0.0022812340861241157 0.0038796345433999356 0.0022812340861241157 0.0015893003468743505" pbc="T T T"
Pb       7.78991985       7.81887007       0.08096000       0.15204599       0.22003400       0.01175400
Pb       3.87182999       7.75693989       0.04053000       0.12822600       0.43638599      -0.20324001
Pb       3.91599989       3.86535001       7.92678022      -0.28347501      -0.03319700       0.26751500
Pb       7.75011015       3.89875007       0.05235000       0.67218298       0.20928900       0.29629400
Pb       0.01795000       0.07198000       4.06970978       0.03023600      -0.27044001      -0.07715700
Pb       4.00777006       7.80051994       4.03072023      -0.39353901       0.19994700       0.36585101
Pb       3.81719995       3.91175008       3.98737001       0.14873099       0.14894401       0.01678600
Pb       7.78476000       3.97519994       3.90750003       0.37570801      -0.05025700       0.09796000
Ti       2.01149988       1.98178005       2.00117993       0.24552301       0.89444399      -0.14118700
Ti       5.90614986       1.99409997       2.04963994       0.33344299       0.51461297      -0.74379700
Ti       5.90645981       5.96023989       2.03538990       0.20204601      -0.47685599      -0.36769900
Ti       1.95703995       5.95541000       1.98897004       0.45180601      -0.79218203       0.15631799
Ti       1.97518003       1.98117995       5.97409010       1.50245202       0.18662000      -0.23247200
Ti       5.98994017       2.00381994       5.98215008      -0.54523802       0.04275500      -0.55747402
Ti       5.98331022       5.88279009       5.97145987      -0.35750100       0.55352497       0.02494600
Ti       2.00326991       5.90774012       5.98051977       0.31517401      -0.11130400      -0.32063401
O        0.19337000       2.23218012       1.93509996      -0.42628801      -0.04642400       0.07646200
O        4.10787010       2.01762009       1.68281996       0.18600400      -0.10288200       0.36496401
O        4.08788013       6.16260004       1.86368001       0.06928800       0.08199200       0.15912500
O        0.11291000       5.91252995       1.85371006       0.34976101       0.34368500      -0.02093600
O        0.22086000       2.03465009       5.63317013      -0.85441202      -0.21942601       0.27717000
O        4.17855978       2.24561000       5.81407022       0.13158400      -0.11475500       0.51845300
O        4.11957979       5.92743015       5.78241014       0.45833299       0.11044900       0.23723800
O        0.18312000       6.11795998       5.79762983       0.00008900       0.24251001       0.27177700
O        2.00740004       0.16857000       1.81535006       0.14010800      -1.26704097      -0.08940200
O        6.19394016       0.15891001       1.88717997       0.00780200      -0.52669197       0.28813699
O        5.99857998       4.05829000       1.79673004      -0.02174400       0.35075599       0.06475000
O        2.30158997       4.05776978       1.87636006      -0.27296999       0.62468803       0.04415600
O        2.37024999       0.12520000       5.80038977      -0.57955402      -0.25288901       0.25021499
O        6.06172991       0.15786999       5.69649982       0.04823100      -0.35981801       0.32997400
O        6.30681992       4.07409000       5.97404003      -0.31926700      -0.04617800      -0.31510499
O        2.10953999       4.03002977       5.84026003      -0.03977200       0.51759702      -0.19871400
O        2.11279988       2.13468003       7.80469990      -0.16685601      -0.11329000       0.08182200
O        6.25299978       2.09752989       7.80868006      -0.23994400      -0.44800201       0.31410101
O        6.04221010       6.15673018       7.86343002       0.13155800      -0.14895201      -0.44428501
O        2.17825007       5.99928999       7.84909010      -0.11988300       0.25627500      -0.13367601
O        2.34360003       2.09734988       3.84957004      -0.50695401      -0.28251100      -0.20417801
O        6.09316015       2.23736000       3.86181998      -0.30182901      -0.20559900      -0.07604800
O        6.14551020       5.97749996       3.89038992      -0.26119599       0.03754100      -0.24347700
O        2.20917010       6.08404016       3.84405994      -0.38991001      -0.10335400      -0.14628901
40
Lattice="7.906778812408447 0.0 0.0 -0.03379739448428154 7.906706809997559 0.0 -0.03379739448428154 -0.033942170441150665 7.9066338539123535" Properties=species:S:1:pos:R:3:forces:R:3 energy=-317.7323913574219 stress="-0.002809733969742661 -0.0003689293849579917 -0.005974996865237515 -0.0003689293849579917 -0.009502934552991074 0.0018140198144998875 -0.005974996865237515 0.0018140198144998875 -0.013922017504372186" pbc="T T T"
Pb       0.07224000       7.82777023       0.00494000      -0.35032699       0.27386501       0.05744900
Pb       3.97741008       7.86709976       0.04070000       0.04086700       0.24320801      -0.07377700
Pb       4.05392981       3.97298002       0.12447000      -0.23782399      -0.28033400      -0.09536600
Pb       0.02095000       3.89318991       7.89530993      -0.23091900      -0.10995300       0.28921601
Pb       7.79404020       7.84467983       3.95911002       0.32503000       0.22592400       0.14111000
Pb       3.83785009       7.81402016       3.94802999       0.03480200       0.30028799      -0.02812700
Pb       3.94340992       3.82968998       4.07792997      -0.04521600       0.10162200      -0.47021401
Pb       0.02081000       3.92529011       4.02206993      -0.17170000      -0.15930600      -0.26857600
Ti       1.93910003       1.98256004       1.98486996      -0.26194799       0.12387800      -0.53975701
Ti       5.92588997       1.97222996       2.00091004       0.00039200       0.40924600      -1.14751899
Ti       5.90953016       5.97192001       1.97663999      -0.14615101      -0.40952101      -1.45163798
Ti       1.93374002       5.90091991       1.95849001      -0.26545000       0.67032802      -0.40310299
Ti       1.91349995       1.94190001       5.93924999      -0.16290399       0.57873899      -0.35382700
Ti       5.89061022       1.94401002       5.96759987      -0.19286001      -0.03886600      -0.49139100
Ti       5.83172989       5.92943001       5.91033983      -0.00922300       0.55461597       0.36507499
Ti       1.93277001       5.91538000       5.89559984      -0.18441100       0.62608600      -0.09128600
O        7.75804996       2.35419011       1.85900998      -0.06781200      -0.36989599       0.44781601
O        3.77093005       2.01149988       1.66389000       0.49686000      -0.06615900       0.24054600
O        3.76546001       6.31028986       1.85934997       0.27634901      -0.35901600       0.37968999
O        7.75706005       5.96027994       1.65690005       0.08897700       0.04474700       0.11940200
O        7.73913002       2.05282998       5.64725018      -0.20702399       0.22565500      -0.01816900
O        3.76328993       2.15746999       5.87723017       0.35958299       0.15074199      -0.13557200
O        3.79996991       6.05195999       5.58243990      -0.61055797      -0.17003401       0.18642800
O        7.67457008       6.24138021       5.87888002       0.53547502      -0.57144099      -0.20939399
O        1.62592006       0.15868001       2.01087999       0.26960999       0.03506900      -0.27362201
O        5.94961023       0.14016999       1.53199005      -0.07409600       0.17980500       0.69557399
O        5.66536999       4.09650993       1.94667006      -0.28854799       0.09829100      -0.01819000
O        1.96205997       4.11564016       1.66954005      -0.05034700      -0.30421501      -0.00632100
O        1.77294004       0.17712000       5.54130983       0.48684901      -0.89559001       0.34214899
O        5.69752979       0.11780000       5.91739988      -0.02884800       0.18133201      -0.15932301
O        5.79487991       4.12783003       5.55072021       0.17637500      -0.63686597       0.38835600
O        1.68297994       4.11817980       5.88009977       0.21508700      -0.18740200      -0.09794600
O        1.62939000       2.04682994       7.74681997       0.18458900      -0.31264400       0.19305700
O        5.85468006       2.26862001       7.75278997      -0.04849100       0.03216100       0.03302300
O        5.53521013       5.93420982       7.75316000       0.32743800      -0.16126700      -0.40238100
O        1.93422997       6.22688007       7.72869015      -0.23115900      -0.22193800      -0.24356700
O        1.91824996       2.31171989       3.78496003      -0.16428600      -0.05173200       0.45359400
O        5.62286997       1.94070995       3.77314997       0.16577600       0.02922000       0.57968098
O        5.83429003       6.24266005       3.72643995      -0.03104300       0.11726800       1.26705396
O        1.67110002       5.93779993       3.76519990       0.07708700       0.10409000       0.79984802
40
Lattice="7.893215179443359 0.0 0.0 0.0 7.893215179443359 0.0 0.0 0.0 7.893215179443359" Properties=species:S:1:pos:R:3:forces:R:3 energy=-317.49847412109375 stress="-0.008611517125454028 -0.001905869866837139 0.0038304580516876005 -0.001905869866837139 -0.015027383159579764 -4.0744575981053354e-05 0.0038304580516876005 -4.0744575981053354e-05 -0.011745828184374673" pbc="T T T"
Pb       7.88376999       7.84179020       0.06203000      -0.18819000       0.04581300       0.35023400
Pb       3.82380009       7.84147978       0.05647000       0.54415101       0.37277201       0.13109000
Pb       3.93016005       3.98187995       0.00502000      -0.04462700      -0.43586200       0.15793499
Pb       0.05787000       3.90748000       7.71408987      -0.26893899      -0.17078400       0.80400002
Pb       7.80379009       0.00994000       4.04781008       0.06333700      -0.16251400      -0.28152099
Pb       3.90190005       7.79593992       4.02634001       0.09213900       0.36401200      -0.15685099
Pb       3.91767001       3.93798995       3.97273993      -0.03304200      -0.28674901       0.21554200
Pb       7.83844995       3.92074990       3.93324995       0.01871100      -0.07743300       0.00144400
Ti       1.96085000       1.97420001       2.06306005       0.76948601       0.45966101      -0.77047700
Ti       5.84419012       1.95576000       2.02481008       0.54224098       0.43374300      -0.89486498
Ti       5.87204981       5.87812996       2.02473998       1.10043204       0.48066899      -0.83052301
Ti       1.95082998       5.89775991       2.02339005       0.11519300       0.08430500      -0.68687201
Ti       1.97626996       1.95837998       5.96553993       0.93515402       0.60009903      -0.90510303
Ti       5.91966009       1.90079999       5.97372007       0.01316900       1.09761798      -0.15319100
Ti       5.94364977       5.88219976       5.99570990       0.06596700       0.50986302      -0.66961598
Ti       1.99530005       5.93778992       5.92784977       0.15098600       0.18100899      -0.10952000
O        0.18954000       2.26993990       2.07526994      -0.77235699      -0.29228300      -0.20385900
O        4.05905008       2.01023006       1.59335995       0.43406901       0.00529600       0.64403999
O        4.09001017       6.24732018       2.03421998      -0.51240200      -0.40787801       0.10385000
O        0.15665001       5.88394022       1.58227003       0.18277600       0.29107499       0.41501099
O        0.18059000       2.11877990       5.60171986      -0.52155399      -0.48922801       0.26716900
O        4.11223984       2.26038003       5.90078020       0.02175300      -0.28014100       0.26977000
O        4.10366011       5.99773979       5.56393003       0.19100800      -0.24344499       0.28287500
O        0.14846000       6.18769979       6.02239990      -0.05670400      -0.17269400      -0.10585900
O        2.06895995       0.12978999       1.73433006      -0.43523800      -0.36733899       0.22516599
O        6.20815992       0.14755000       1.91229999       0.00224100      -0.31815499       0.19637500
O        5.93435001       4.07721996       1.77721000      -0.13493900      -0.50825399       0.16216800
O        2.30054998       4.05935001       1.90897000      -0.11591000       0.41274601       0.18244800
O        2.25607991       0.13687000       5.87744999      -0.29902601      -0.21515100      -0.03491000
O        6.03972006       0.08370000       5.75677013      -0.04148600      -0.08399300      -0.19811600
O        6.27049017       4.07488012       5.92109013      -0.45227599      -0.26241601      -0.25447801
O        2.08441997       4.12950993       5.73326015      -0.16757201      -0.55593401       0.03658500
O        2.01990008       2.24319005       7.74657011      -0.28935799      -0.23835300       0.52431297
O        6.30561018       2.00664997       7.77470016      -0.20570400       0.13310400       0.16180401
O        5.83846998       6.07707977       7.77962017       0.18164399       0.17453800       0.51469100
O        2.39908004       6.01635981       7.75733995      -0.57905900      -0.34298900       0.34714001
O        2.32448006       2.04940009       3.85185003      -0.10835700      -0.01989400       0.21935700
O        5.88324022       2.18694997       3.86427999       0.24615200      -0.08891900      -0.10871000
O        6.32423019       5.94916010       3.80924010      -0.35282001       0.20711499       0.44203600
O        1.96142006       6.11440992       3.86351991      -0.09105000       0.16697200      -0.29057100
40
Lattice="7.87554407119751 0.0 0.0 0.0 7.87554407119751 0.0 0.0 0.0 7.87554407119751" Properties=species:S:1:pos:R:3:forces:R:3 energy=-318.0028991699219 stress="-0.015558002953819025 -0.0034003176567363284 0.0032924394045683704 -0.0034003176567363284 -0.015561229217479794 0.004315853433578408 0.0032924394045683704 0.004315853433578408 -0.009367980257784578" pbc="T T T"
Pb       7.82200003       7.86817980       0.10434000       0.09380400      -0.09717300      -0.18744400
Pb       3.88304996       7.81019020       0.02123000       0.12042000      -0.07817200      -0.15017900
Pb       3.93760991       3.80058002       7.84213018      -0.14915200       0.52847302      -0.17481200
Pb       0.01337000       3.86649990       0.10430000       0.01639500       0.28356999      -0.34843600
Pb       7.78048992       7.86253977       3.94369006       0.38638601      -0.12948599      -0.18627900
Pb       3.92155004       7.85562992       3.96200991      -0.20417701      -0.17494801       0.02819100
Pb       3.88591003       3.92915010       4.03733015      -0.02834900       0.21748599      -0.08005500
Pb       7.82608986       3.90007997       3.96473002       0.06936100       0.26098901      -0.03026200
Ti       2.04193997       2.01059008       1.95219004      -0.40193701      -0.01005500      -0.01687900
Ti       5.90408993       1.99792004       1.95940006       0.56518298      -0.03245700      -0.17435800
Ti       5.87495995       5.87296009       1.94159997       0.28047600       0.48835099      -0.42711499
Ti       1.97493994       5.94257021       1.93183994       0.20701900      -0.17695600       0.30881301
Ti       1.91441000       1.99596000       5.86261988       0.82228202       0.13067500       0.11537500
Ti       5.91828012       1.94870996       5.89018011       0.31236300       0.73982102      -0.23550600
Ti       5.95371008       5.92821980       5.89429998       0.08058700       0.09604100       0.33439100
Ti       1.95690000       5.97446012       5.87649012       0.13453200      -0.12129400      -0.18152300
O        0.15377000       2.18801999       1.86307001      -0.02228200       0.26077399       0.36549500
O        4.08973980       2.04762006       1.59237003      -0.27375999      -0.21695900       0.39377600
O        4.05111980       6.19881010       1.95550001       0.26018301      -0.12748601      -0.20899700
O        0.13313000       5.97157001       1.67192996      -0.03956000      -0.07822500       0.31004301
O        0.12350000       2.05340004       5.52696991      -0.14692900       0.12869801       0.36223999
O        4.10057020       2.20170999       5.86383009      -0.45201501      -0.12548500       0.03050900
O        4.12962008       6.06796980       5.62905979      -0.52992600      -0.07758400       0.12755699
O        0.13265000       6.20779991       5.84073019      -0.02324000      -0.33756599      -0.04665700
O        2.04887009       0.17056000       1.77262998       0.07149800      -0.27068999      -0.22756100
O        6.18129015       0.15121999       1.89217997      -0.34036699       0.10771100       0.16850600
O        5.92844009       4.03745985       1.62340999       0.15413500       0.28553101       0.58152598
O        2.26037002       4.09511995       1.92727005      -0.22532900      -0.11498500      -0.10360400
O        2.17288995       0.17317000       5.85861015       0.11275200      -0.22316200      -0.10634900
O        6.04080009       0.14568999       5.64646006      -0.18167999      -0.22902299      -0.03221400
O        6.12350988       4.10336018       5.81902981       0.13052499      -0.15147901      -0.00963500
O        2.08318996       4.09222984       5.67557001      -0.18035600       0.00893800      -0.10981200
O        1.98643005       2.29895997       7.73383999       0.07358400      -0.43524101      -0.18906100
O        6.22269011       2.08155990       7.69660997      -0.18653101      -0.28166899       0.39250901
O        5.95312977       6.20874023       7.77196980      -0.03975000      -0.15141100      -0.26569700
O        2.19352007       6.03882980       7.71866989       0.17487399      -0.09436400       0.36546800
O        2.30064011       1.98988998       3.80530000      -0.18001100       0.45093501      -0.02070600
O        5.95391989       2.27644992       3.79997993      -0.10567500      -0.30490899      -0.40378001
O        6.21012020       5.98663998       3.77203012      -0.22452600      -0.16885300       0.05041000
O        2.05503988       6.12995005       3.80626988      -0.13081200       0.22163600      -0.01789100
40
Lattice="7.780441761016846 0.0 0.0 0.0 7.780441761016846 0.0 0.0 0.0 8.153817176818848" Properties=species:S:1:pos:R:3:forces:R:3 energy=-317.7311096191406 stress="-0.010270720536028587 0.002961502195165728 0.0030342594530951917 0.002961502195165728 -0.014239203216861413 -0.0038297897013091693 0.0030342594530951917 -0.0038297897013091693 0.004805387738651214" pbc="T T T"
Pb       0.03452000       7.70657015       0.25514001      -0.27117100       0.39803401       0.32259500
Pb       7.77582979       0.03017000       4.30816984      -0.29451001      -0.04289200       0.20970300
Pb       7.69630003       3.90479994       0.12389000       0.13605300      -0.08488200       0.59513199
Pb       7.72696018       3.95062995       4.43796015       0.16825201      -0.13499700      -0.25550401
Pb       3.84767008       0.04723000       0.33197999       0.30286899       0.06498900      -0.16292900
Pb       3.76089001       0.10046000       4.24766016       0.54535502      -0.19068199       0.36980900
Pb       3.95114994       3.91564989       0.25865000       0.01540900      -0.12555000       0.17302600
Pb       3.79470992       3.99058008       4.29384995       0.17280599      -0.21040100       0.15230200
Ti       1.96907997       1.97062004       2.28535008      -0.23763201       0.21287900      -1.40107095
Ti       1.96942997       1.95304000       6.34743023       0.73676300      -0.15456399       0.10712500
Ti       1.96739995       5.79161978       2.20581007      -0.37476799      -0.58109403       0.55763000
Ti       2.02642989       5.84666014       6.41126013      -0.40415701      -0.66238201      -0.89208400
Ti       5.87330008       1.95062995       2.27447009       0.67753398      -0.33178601       0.02879500
Ti       5.87437010       1.87073004       6.35476017      -0.60247701       0.03049700      -0.05953900
Ti       5.85265017       5.82300997       2.30752993       0.36288401      -0.57903397      -0.22173400
Ti       5.82269001       5.82397985       6.36844015       0.50073701      -0.15138499      -0.10632500
O        2.15394998       1.84657001       0.00633000      -0.17354900       0.29787400       0.18597600
O        1.98212004       1.70801997       4.06305981       0.08756600      -0.00394000       0.86010301
O        1.99688005       5.59044981       0.04161000       0.07257400       0.27903801       0.33921301